%VERSION  VERSION_STAMP = V0001.000  DATE = 03/19/24  23:46:35
%FLAG TITLE
%FORMAT(20a4)

%FLAG POINTERS
%FORMAT(10I8)
      16       5      11       4      24       3      31       4       0       0
      76       1       4       3       4       4       3       7       1       0
       0       0       0       0       0       0       0       1      16       0
       0       0
%FLAG ATOM_NAME
%FORMAT(20a4)
   C   C   C   C   N   H   H   H   H   H   H   H   H   H   H   H
%FLAG CHARGE
%FORMAT(5E16.8)
 -1.69991395E+00 -1.39560154E+00 -2.23382734E+00  2.72628272E+00 -1.64909549E+01
  6.04605664E-01  6.04605664E-01  6.04605664E-01  7.38229790E-01  7.38229790E-01
  7.01785190E-01  7.01785190E-01  9.38675090E-01  9.38675090E-01  6.26140892E+00
  6.26140892E+00
%FLAG ATOMIC_NUMBER
%FORMAT(10I8)
       6       6       6       6       7       1       1       1       1       1
       1       1       1       1       1       1
%FLAG MASS
%FORMAT(5E16.8)
  1.20107800E+01  1.20107800E+01  1.20107800E+01  1.20107800E+01  1.40067200E+01
  1.00794700E+00  1.00794700E+00  1.00794700E+00  1.00794700E+00  1.00794700E+00
  1.00794700E+00  1.00794700E+00  1.00794700E+00  1.00794700E+00  1.00794700E+00
  1.00794700E+00
%FLAG ATOM_TYPE_INDEX
%FORMAT(10I8)
       1       1       1       1       2       3       3       3       3       3
       3       3       4       4       5       5
%FLAG NUMBER_EXCLUDED_ATOMS
%FORMAT(10I8)
      10      12      13       9       6       4       3       2       3       2
       3       2       3       2       1       1
%FLAG NONBONDED_PARM_INDEX
%FORMAT(10I8)
       1       2       4       7      11       2       3       5       8      12
       4       5       6       9      13       7       8       9      10      14
      11      12      13      14      15
%FLAG RESIDUE_LABEL
%FORMAT(20a4)
RES 
%FLAG RESIDUE_POINTER
%FORMAT(10I8)
       1
%FLAG BOND_FORCE_CONSTANT
%FORMAT(5E16.8)
  2.09993463E+02  3.59821246E+02  2.28551472E+02  4.82335960E+02
%FLAG BOND_EQUIL_VALUE
%FORMAT(5E16.8)
  1.52794022E+00  1.09013951E+00  1.46420198E+00  1.02255338E+00
%FLAG ANGLE_FORCE_CONSTANT
%FORMAT(5E16.8)
  6.05941635E+01  4.69282416E+01  3.75412722E+01
%FLAG ANGLE_EQUIL_VALUE
%FORMAT(5E16.8)
  1.92096522E+00  1.91686128E+00  1.89514702E+00
%FLAG DIHEDRAL_FORCE_CONSTANT
%FORMAT(5E16.8)
  4.29489372E-01  2.54391956E-01  8.73616024E-01  8.58688006E-02  1.52695928E-01
  3.05938049E-01  2.51607308E-01
%FLAG DIHEDRAL_PERIODICITY
%FORMAT(5E16.8)
  3.00000000E+00  2.00000000E+00  1.00000000E+00  3.00000000E+00  3.00000000E+00
  3.00000000E+00  3.00000000E+00
%FLAG DIHEDRAL_PHASE
%FORMAT(5E16.8)
  0.00000000E+00  3.14159265E+00  3.14159265E+00  0.00000000E+00  0.00000000E+00
  0.00000000E+00  0.00000000E+00
%FLAG SCEE_SCALE_FACTOR
%FORMAT(5E16.8)
  1.20000000E+00  1.20000000E+00  1.20000000E+00  1.20000000E+00  1.20000000E+00
  1.20000000E+00  1.20000000E+00
%FLAG SCNB_SCALE_FACTOR
%FORMAT(5E16.8)
  2.00000000E+00  2.00000000E+00  2.00000000E+00  2.00000000E+00  2.00000000E+00
  2.00000000E+00  2.00000000E+00
%FLAG SOLTY
%FORMAT(5E16.8)
  0.00000000E+00
%FLAG LENNARD_JONES_ACOEF
%FORMAT(5E16.8)
  9.66338652E+05  8.79294713E+05  7.93518630E+05  9.24328843E+04  8.09350668E+04
  7.38518138E+03  8.33691908E+04  7.27334579E+04  6.54768129E+03  5.79557957E+03
  2.51965625E+03  1.95217207E+03  1.11884330E+02  9.36052280E+01  1.83621096E-01
%FLAG LENNARD_JONES_BCOEF
%FORMAT(5E16.8)
  6.48619732E+02  6.89322956E+02  7.29565189E+02  1.23783906E+02  1.29047419E+02
  2.15902147E+01  1.18714205E+02  1.23536998E+02  2.05290621E+01  1.95039576E+01
  1.98670055E+01  1.94827762E+01  2.58328217E+00  2.38608676E+00  1.01732411E-01
%FLAG BONDS_INC_HYDROGEN
%FORMAT(10I8)
       0      15       2       0      18       2       0      21       2       3
      24       2       3      27       2       6      30       2       6      33
       2       9      36       2       9      39       2      12      42       4
      12      45       4
%FLAG BONDS_WITHOUT_HYDROGEN
%FORMAT(10I8)
       0       3       1       3       6       1       6       9       1       9
      12       3
%FLAG ANGLES_INC_HYDROGEN
%FORMAT(10I8)
       0       3      24       1       0       3      27       1       3       0
      15       1       3       0      18       1       3       0      21       1
       3       6      30       1       3       6      33       1       6       3
      24       1       6       3      27       1       6       9      36       1
       6       9      39       1       9       6      30       1       9       6
      33       1       9      12      42       2       9      12      45       2
      12       9      36       1      12       9      39       1      15       0
      18       3      15       0      21       3      18       0      21       3
      24       3      27       3      30       6      33       3      36       9
      39       3      42      12      45       2
%FLAG ANGLES_WITHOUT_HYDROGEN
%FORMAT(10I8)
       0       3       6       1       3       6       9       1       6       9
      12       1
%FLAG DIHEDRALS_INC_HYDROGEN
%FORMAT(10I8)
       0       3       6      30       4       0       3       6      33       4
       3       6       9      36       4       3       6       9      39       4
      15       0       3       6       4      18       0       3       6       4
      21       0       3       6       4       6       9      12      42       6
       6       9      12      45       6       9       6       3      24       4
       9       6       3      27       4      12       9       6      30       5
      12       9       6      33       5      15       0       3      24       7
      15       0       3      27       7      18       0       3      24       7
      18       0       3      27       7      21       0       3      24       7
      21       0       3      27       7      24       3       6      30       7
      24       3       6      33       7      27       3       6      30       7
      27       3       6      33       7      30       6       9      36       7
      30       6       9      39       7      33       6       9      36       7
      33       6       9      39       7      36       9      12      42       6
      36       9      12      45       6      39       9      12      42       6
      39       9      12      45       6
%FLAG DIHEDRALS_WITHOUT_HYDROGEN
%FORMAT(10I8)
       0       3       6       9       1       0       3      -6       9       2
       0       3      -6       9       3       3       6       9      12       5
%FLAG EXCLUDED_ATOMS_LIST
%FORMAT(10I8)
       2       3       4       6       7       8       9      10      11      12
       3       4       5       6       7       8       9      10      11      12
      13      14       4       5       6       7       8       9      10      11
      12      13      14      15      16       5       9      10      11      12
      13      14      15      16      11      12      13      14      15      16
       7       8       9      10       8       9      10       9      10      10
      11      12      11      12      12      13      14      13      14      14
      15      16      15      16      16       0
%FLAG HBOND_ACOEF
%FORMAT(5E16.8)

%FLAG HBOND_BCOEF
%FORMAT(5E16.8)

%FLAG HBCUT
%FORMAT(5E16.8)

%FLAG AMBER_ATOM_TYPE
%FORMAT(20a4)
C1  C2  C3  C4  N1  H1  H2  H3  H4  H5  H6  H7  H8  H9  H10 H11 
%FLAG TREE_CHAIN_CLASSIFICATION
%FORMAT(20a4)
BLA BLA BLA BLA BLA BLA BLA BLA BLA BLA BLA BLA BLA BLA BLA BLA 
%FLAG JOIN_ARRAY
%FORMAT(10I8)
       0       0       0       0       0       0       0       0       0       0
       0       0       0       0       0       0
%FLAG IROTAT
%FORMAT(10I8)
       0       0       0       0       0       0       0       0       0       0
       0       0       0       0       0       0
%FLAG SOLVENT_POINTERS
%FORMAT(3I8)
       1       1       2
%FLAG ATOMS_PER_MOLECULE
%FORMAT(10I8)
      16
%FLAG BOX_DIMENSIONS
%FORMAT(5E16.8)
  9.00000000E+01  3.00000000E+01  3.00000000E+01  3.00000000E+01
%FLAG RADIUS_SET
%FORMAT(1a80)
0
%FLAG RADII
%FORMAT(5E16.8)
  0.00000000E+00  0.00000000E+00  0.00000000E+00  0.00000000E+00  0.00000000E+00
  0.00000000E+00  0.00000000E+00  0.00000000E+00  0.00000000E+00  0.00000000E+00
  0.00000000E+00  0.00000000E+00  0.00000000E+00  0.00000000E+00  0.00000000E+00
  0.00000000E+00
%FLAG SCREEN
%FORMAT(5E16.8)
  0.00000000E+00  0.00000000E+00  0.00000000E+00  0.00000000E+00  0.00000000E+00
  0.00000000E+00  0.00000000E+00  0.00000000E+00  0.00000000E+00  0.00000000E+00
  0.00000000E+00  0.00000000E+00  0.00000000E+00  0.00000000E+00  0.00000000E+00
  0.00000000E+00
%FLAG IPOL
%FORMAT(1I8)
       0
