%VERSION  VERSION_STAMP = V0001.000  DATE = 02/28/24  15:23:49
%FLAG TITLE
%FORMAT(20a4)

%FLAG POINTERS
%FORMAT(10I8)
      17       7      11       5      24       4      32       5       0       0
      80       1       5       4       5       6       5       8       1       0
       0       0       0       0       0       0       0       1      17       0
       0       0
%FLAG ATOM_NAME
%FORMAT(20a4)
   C   C   C   C   N   S   H   H   H   H   H   H   H   H   H   H   H
%FLAG CHARGE
%FORMAT(5E16.8)
 -1.69542423E+00 -1.46400102E+00 -1.53689022E+00  3.36855294E+00 -1.32337846E+01
 -2.70493965E+00  6.15163410E-01  6.15163410E-01  6.15163410E-01  8.15608710E-01
  8.15608710E-01  8.15608710E-01  8.15608710E-01  7.51830660E-01  7.51830660E-01
  7.35923664E+00  3.29566374E+00
%FLAG ATOMIC_NUMBER
%FORMAT(10I8)
       6       6       6       6       7      16       1       1       1       1
       1       1       1       1       1       1       1
%FLAG MASS
%FORMAT(5E16.8)
  1.20107800E+01  1.20107800E+01  1.20107800E+01  1.20107800E+01  1.40067200E+01
  3.20655000E+01  1.00794700E+00  1.00794700E+00  1.00794700E+00  1.00794700E+00
  1.00794700E+00  1.00794700E+00  1.00794700E+00  1.00794700E+00  1.00794700E+00
  1.00794700E+00  1.00794700E+00
%FLAG ATOM_TYPE_INDEX
%FORMAT(10I8)
       1       1       1       1       2       3       4       4       4       4
       4       4       4       5       5       6       7
%FLAG NUMBER_EXCLUDED_ATOMS
%FORMAT(10I8)
      10      12      13      10       7       4       4       3       2       3
       2       3       2       2       1       1       1
%FLAG NONBONDED_PARM_INDEX
%FORMAT(10I8)
       1       2       4       7      11      16      22       2       3       5
       8      12      17      23       4       5       6       9      13      18
      24       7       8       9      10      14      19      25      11      12
      13      14      15      20      26      16      17      18      19      20
      21      27      22      23      24      25      26      27      28
%FLAG RESIDUE_LABEL
%FORMAT(20a4)
RES 
%FLAG RESIDUE_POINTER
%FORMAT(10I8)
       1
%FLAG BOND_FORCE_CONSTANT
%FORMAT(5E16.8)
  2.09993463E+02  3.59821246E+02  2.28551472E+02  9.74968471E+01  4.82335960E+02
  2.94778711E+02
%FLAG BOND_EQUIL_VALUE
%FORMAT(5E16.8)
  1.52794022E+00  1.09013951E+00  1.46420198E+00  1.66697433E+00  1.02255338E+00
  1.34343430E+00
%FLAG ANGLE_FORCE_CONSTANT
%FORMAT(5E16.8)
  6.05941635E+01  1.14868328E+02  4.69282416E+01  9.51178580E+01  3.75412722E+01
%FLAG ANGLE_EQUIL_VALUE
%FORMAT(5E16.8)
  1.92096522E+00  1.97315675E+00  1.91686128E+00  1.76647552E+00  1.89514702E+00
%FLAG DIHEDRAL_FORCE_CONSTANT
%FORMAT(5E16.8)
  4.29489372E-01  2.54391956E-01  8.73616024E-01  8.58688006E-02  1.52695928E-01
  3.05938049E-01 -7.71597969E-01  2.51607308E-01
%FLAG DIHEDRAL_PERIODICITY
%FORMAT(5E16.8)
  3.00000000E+00  2.00000000E+00  1.00000000E+00  3.00000000E+00  3.00000000E+00
  3.00000000E+00  2.00000000E+00  3.00000000E+00
%FLAG DIHEDRAL_PHASE
%FORMAT(5E16.8)
  0.00000000E+00  3.14159265E+00  3.14159265E+00  0.00000000E+00  0.00000000E+00
  0.00000000E+00  3.14159265E+00  0.00000000E+00
%FLAG SCEE_SCALE_FACTOR
%FORMAT(5E16.8)
  1.20000000E+00  1.20000000E+00  1.20000000E+00  1.20000000E+00  1.20000000E+00
  1.20000000E+00  1.20000000E+00  1.20000000E+00
%FLAG SCNB_SCALE_FACTOR
%FORMAT(5E16.8)
  2.00000000E+00  2.00000000E+00  2.00000000E+00  2.00000000E+00  2.00000000E+00
  2.00000000E+00  2.00000000E+00  2.00000000E+00
%FLAG SOLTY
%FORMAT(5E16.8)
  0.00000000E+00
%FLAG LENNARD_JONES_ACOEF
%FORMAT(5E16.8)
  9.66338652E+05  8.79294713E+05  7.93518630E+05  2.02174589E+06  1.85503496E+06
  4.19430400E+06  9.24328843E+04  8.09350668E+04  2.01026364E+05  7.38518138E+03
  8.33691908E+04  7.27334579E+04  1.81978803E+05  6.54768129E+03  5.79557957E+03
  2.51965625E+03  1.95217207E+03  6.18894883E+03  1.11884330E+02  9.36052280E+01
  1.83621096E-01  2.42514451E+03  1.87198472E+03  5.97860700E+03  1.05747091E+02
  8.83074728E+01  1.60564699E-01  1.39982777E-01
%FLAG LENNARD_JONES_BCOEF
%FORMAT(5E16.8)
  6.48619732E+02  6.89322956E+02  7.29565189E+02  1.15498415E+03  1.23259051E+03
  2.04800000E+03  1.23783906E+02  1.29047419E+02  2.24731886E+02  2.15902147E+01
  1.18714205E+02  1.23536998E+02  2.15922329E+02  2.05290621E+01  1.95039576E+01
  1.98670055E+01  1.94827762E+01  3.83316461E+01  2.58328217E+00  2.38608676E+00
  1.01732411E-01  2.00249510E+01  1.96012528E+01  3.87070358E+01  2.58025313E+00
  2.38108990E+00  9.77381176E-02  9.37598976E-02
%FLAG BONDS_INC_HYDROGEN
%FORMAT(10I8)
       0      18       2       0      21       2       0      24       2       3
      27       2       3      30       2       6      33       2       6      36
       2       9      39       2       9      42       2      12      45       5
      15      48       6
%FLAG BONDS_WITHOUT_HYDROGEN
%FORMAT(10I8)
       0       3       1       3       6       1       6       9       1       9
      12       3      12      15       4
%FLAG ANGLES_INC_HYDROGEN
%FORMAT(10I8)
       0       3      27       1       0       3      30       1       3       0
      18       1       3       0      21       1       3       0      24       1
       3       6      33       1       3       6      36       1       6       3
      27       1       6       3      30       1       6       9      39       1
       6       9      42       1       9       6      33       1       9       6
      36       1       9      12      45       3      12       9      39       1
      12       9      42       1      12      15      48       4      15      12
      45       3      18       0      21       5      18       0      24       5
      21       0      24       5      27       3      30       5      33       6
      36       5      39       9      42       5
%FLAG ANGLES_WITHOUT_HYDROGEN
%FORMAT(10I8)
       0       3       6       1       3       6       9       1       6       9
      12       1       9      12      15       2
%FLAG DIHEDRALS_INC_HYDROGEN
%FORMAT(10I8)
       0       3       6      33       4       0       3       6      36       4
       3       6       9      39       4       3       6       9      42       4
      18       0       3       6       4      21       0       3       6       4
      24       0       3       6       4       6       9      12      45       6
       9       6       3      27       4       9       6       3      30       4
       9      12      15      48       7      12       9       6      33       5
      12       9       6      36       5      15      12       9      39       6
      15      12       9      42       6      18       0       3      27       8
      18       0       3      30       8      21       0       3      27       8
      21       0       3      30       8      24       0       3      27       8
      24       0       3      30       8      27       3       6      33       8
      27       3       6      36       8      30       3       6      33       8
      30       3       6      36       8      33       6       9      39       8
      33       6       9      42       8      36       6       9      39       8
      36       6       9      42       8      39       9      12      45       6
      42       9      12      45       6      45      12      15      48       7
%FLAG DIHEDRALS_WITHOUT_HYDROGEN
%FORMAT(10I8)
       0       3       6       9       1       0       3      -6       9       2
       0       3      -6       9       3       3       6       9      12       5
       6       9      12      15       6
%FLAG EXCLUDED_ATOMS_LIST
%FORMAT(10I8)
       2       3       4       7       8       9      10      11      12      13
       3       4       5       7       8       9      10      11      12      13
      14      15       4       5       6       7       8       9      10      11
      12      13      14      15      16       5       6      10      11      12
      13      14      15      16      17       6      12      13      14      15
      16      17      14      15      16      17       8       9      10      11
       9      10      11      10      11      11      12      13      12      13
      13      14      15      14      15      15      16      16      17       0
%FLAG HBOND_ACOEF
%FORMAT(5E16.8)

%FLAG HBOND_BCOEF
%FORMAT(5E16.8)

%FLAG HBCUT
%FORMAT(5E16.8)

%FLAG AMBER_ATOM_TYPE
%FORMAT(20a4)
C1  C2  C3  C4  N1  S1  H1  H2  H3  H4  H5  H6  H7  H8  H9  H10 H11 
%FLAG TREE_CHAIN_CLASSIFICATION
%FORMAT(20a4)
BLA BLA BLA BLA BLA BLA BLA BLA BLA BLA BLA BLA BLA BLA BLA BLA BLA 
%FLAG JOIN_ARRAY
%FORMAT(10I8)
       0       0       0       0       0       0       0       0       0       0
       0       0       0       0       0       0       0
%FLAG IROTAT
%FORMAT(10I8)
       0       0       0       0       0       0       0       0       0       0
       0       0       0       0       0       0       0
%FLAG SOLVENT_POINTERS
%FORMAT(3I8)
       1       1       2
%FLAG ATOMS_PER_MOLECULE
%FORMAT(10I8)
      17
%FLAG BOX_DIMENSIONS
%FORMAT(5E16.8)
  9.00000000E+01  3.00000000E+01  3.00000000E+01  3.00000000E+01
%FLAG RADIUS_SET
%FORMAT(1a80)
0
%FLAG RADII
%FORMAT(5E16.8)
  0.00000000E+00  0.00000000E+00  0.00000000E+00  0.00000000E+00  0.00000000E+00
  0.00000000E+00  0.00000000E+00  0.00000000E+00  0.00000000E+00  0.00000000E+00
  0.00000000E+00  0.00000000E+00  0.00000000E+00  0.00000000E+00  0.00000000E+00
  0.00000000E+00  0.00000000E+00
%FLAG SCREEN
%FORMAT(5E16.8)
  0.00000000E+00  0.00000000E+00  0.00000000E+00  0.00000000E+00  0.00000000E+00
  0.00000000E+00  0.00000000E+00  0.00000000E+00  0.00000000E+00  0.00000000E+00
  0.00000000E+00  0.00000000E+00  0.00000000E+00  0.00000000E+00  0.00000000E+00
  0.00000000E+00  0.00000000E+00
%FLAG IPOL
%FORMAT(1I8)
       0
