%VERSION  VERSION_STAMP = V0001.000  DATE = 02/12/24  23:25:25
%FLAG TITLE
%FORMAT(20a4)

%FLAG POINTERS
%FORMAT(10I8)
      16       6       8       8      15      10      34      16       0       0
      74       1       8      10      16       6       5       4       1       0
       0       0       0       0       0       0       0       1      16       0
       0       0
%FLAG ATOM_NAME
%FORMAT(20a4)
   C   C   O   C   C   C   C   C   H   H   H   H   H   H   H   H
%FLAG CHARGE
%FORMAT(5E16.8)
 -3.97246254E+00  2.29783089E+00 -9.09475107E+00 -2.87912454E+00 -7.89026729E-01
 -1.03502778E+00 -3.04312524E+00 -1.60356354E+00  2.40534246E+00  7.61692026E+00
  2.73334386E+00  8.44912245E-01  8.44912245E-01  8.44912245E-01  2.42356476E+00
  2.40534246E+00
%FLAG ATOMIC_NUMBER
%FORMAT(10I8)
       6       6       8       6       6       6       6       6       1       1
       1       1       1       1       1       1
%FLAG MASS
%FORMAT(5E16.8)
  1.20107800E+01  1.20107800E+01  1.59994300E+01  1.20107800E+01  1.20107800E+01
  1.20107800E+01  1.20107800E+01  1.20107800E+01  1.00794700E+00  1.00794700E+00
  1.00794700E+00  1.00794700E+00  1.00794700E+00  1.00794700E+00  1.00794700E+00
  1.00794700E+00
%FLAG ATOM_TYPE_INDEX
%FORMAT(10I8)
       1       1       2       1       1       3       1       1       4       5
       4       6       6       6       4       4
%FLAG NUMBER_EXCLUDED_ATOMS
%FORMAT(10I8)
      11      10       6      11       9       7       8       3       1       1
       1       2       1       1       1       1
%FLAG NONBONDED_PARM_INDEX
%FORMAT(10I8)
       1       2       4       7      11      16       2       3       5       8
      12      17       4       5       6       9      13      18       7       8
       9      10      14      19      11      12      13      14      15      20
      16      17      18      19      20      21
%FLAG RESIDUE_LABEL
%FORMAT(20a4)
RES 
%FLAG RESIDUE_POINTER
%FORMAT(10I8)
       1
%FLAG BOND_FORCE_CONSTANT
%FORMAT(5E16.8)
  3.82573284E+02  3.87692669E+02  3.36974658E+02  5.34904605E+02  2.42097961E+02
  3.59821246E+02
%FLAG BOND_EQUIL_VALUE
%FORMAT(5E16.8)
  1.39444570E+00  1.08182367E+00  1.36799723E+00  9.81124525E-01  1.50343427E+00
  1.09013951E+00
%FLAG ANGLE_FORCE_CONSTANT
%FORMAT(5E16.8)
  7.35207207E+01  3.08813851E+01  1.18925609E+02  6.05941635E+01  3.75412722E+01
%FLAG ANGLE_EQUIL_VALUE
%FORMAT(5E16.8)
  2.09145248E+00  2.08856596E+00  1.95454975E+00  1.92096522E+00  1.89514702E+00
%FLAG DIHEDRAL_FORCE_CONSTANT
%FORMAT(5E16.8)
  9.73509985E-01  3.26266035E+00  1.81260253E-01  1.74359686E+00
%FLAG DIHEDRAL_PERIODICITY
%FORMAT(5E16.8)
  2.00000000E+00  2.00000000E+00  3.00000000E+00  2.00000000E+00
%FLAG DIHEDRAL_PHASE
%FORMAT(5E16.8)
  3.14159265E+00  3.14159265E+00  0.00000000E+00  3.14159265E+00
%FLAG SCEE_SCALE_FACTOR
%FORMAT(5E16.8)
  1.20000000E+00  1.20000000E+00  1.20000000E+00  1.20000000E+00
%FLAG SCNB_SCALE_FACTOR
%FORMAT(5E16.8)
  2.00000000E+00  2.00000000E+00  2.00000000E+00  2.00000000E+00
%FLAG SOLTY
%FORMAT(5E16.8)
  0.00000000E+00
%FLAG LENNARD_JONES_ACOEF
%FORMAT(5E16.8)
  1.09874263E+06  7.19215054E+05  4.40259018E+05  1.03176034E+06  6.66507729E+05
  9.66338652E+05  8.70408503E+04  4.97743103E+04  7.95920949E+04  5.24722927E+03
  1.77434263E+01  5.90854038E+00  1.46234885E+01  3.46839744E-01  2.68310183E-08
  1.00841583E+05  5.83759564E+04  9.24328843E+04  6.23220052E+03  4.58964736E-01
  7.38518138E+03
%FLAG LENNARD_JONES_BCOEF
%FORMAT(5E16.8)
  6.17925587E+02  6.22975213E+02  6.07363521E+02  6.33499463E+02  6.34472236E+02
  6.48619732E+02  1.13235010E+02  1.06702594E+02  1.14557301E+02  1.81015245E+01
  2.71008789E-01  1.94875807E-01  2.60290771E-01  2.46694820E-02  1.15016368E-06
  1.22208696E+02  1.15865057E+02  1.23783906E+02  1.97803496E+01  2.84543313E-02
  2.15902147E+01
%FLAG BONDS_INC_HYDROGEN
%FORMAT(10I8)
       0      24       2       6      27       4       9      30       2      15
      33       6      15      36       6      15      39       6      18      42
       2      21      45       2
%FLAG BONDS_WITHOUT_HYDROGEN
%FORMAT(10I8)
       0       3       1       0      21       1       3       6       3       3
       9       1       9      12       1      12      15       5      12      18
       1      18      21       1
%FLAG ANGLES_INC_HYDROGEN
%FORMAT(10I8)
       0      21      45       2       3       0      24       2       3       6
      27       3       3       9      30       2      12       9      30       2
      12      15      33       4      12      15      36       4      12      15
      39       4      12      18      42       2      18      21      45       2
      21       0      24       2      21      18      42       2      33      15
      36       5      33      15      39       5      36      15      39       5
%FLAG ANGLES_WITHOUT_HYDROGEN
%FORMAT(10I8)
       0       3       6       1       0       3       9       1       0      21
      18       1       3       0      21       1       3       9      12       1
       6       3       9       1       9      12      15       1       9      12
      18       1      12      18      21       1      15      12      18       1
%FLAG DIHEDRALS_INC_HYDROGEN
%FORMAT(10I8)
       0       3       6      27       1       0       3       9      30       2
       0      21      18      42       2       3       0      21      45       2
      24       0       3       6       2       6       3       9      30       2
      24       0       3       9       2       9       3       6      27       1
       9      12      15      33       3       9      12      15      36       3
       9      12      15      39       3       9      12      18      42       2
      12      18      21      45       2      15      12       9      30       2
      15      12      18      42       2      18      12       9      30       2
      18      12      15      33       3      18      12      15      36       3
      18      12      15      39       3      24       0      21      18       2
      24       0      21      45       2      42      18      21      45       2
      21       0     -18     -45       4      21      18     -45       0       4
      21      45       0     -18       4       0       3     -21     -24       4
       0      21     -24      -3       4       0      24      -3     -21       4
       9       3     -12     -30       4       9      12     -30      -3       4
       9      30      -3     -12       4      18      12     -21     -42       4
      18      21     -42     -12       4      18      42     -12     -21       4
%FLAG DIHEDRALS_WITHOUT_HYDROGEN
%FORMAT(10I8)
       0       3       9      12       2       0      21     -18      12       2
       3       0      21      18       2       3       9      12      15       2
       3       9     -12      18       2      21       0       3       6       2
       6       3       9      12       2      21       0       3       9       2
       9      12     -18      21       2      15      12      18      21       2
       3       0      -6      -9       4       3       6      -9       0       4
       3       9       0      -6       4      12       9     -15     -18       4
      12      15     -18      -9       4      12      18      -9     -15       4
%FLAG EXCLUDED_ATOMS_LIST
%FORMAT(10I8)
       2       3       4       5       7       8       9      10      11      15
      16       3       4       5       6       7       8       9      10      11
      16       4       5       8       9      10      11       5       6       7
       8       9      10      11      12      13      14      15       6       7
       8      11      12      13      14      15      16       7       8      11
      12      13      14      15       8       9      11      12      13      14
      15      16       9      15      16      16       0       0      13      14
      14       0      16       0
%FLAG HBOND_ACOEF
%FORMAT(5E16.8)

%FLAG HBOND_BCOEF
%FORMAT(5E16.8)

%FLAG HBCUT
%FORMAT(5E16.8)

%FLAG AMBER_ATOM_TYPE
%FORMAT(20a4)
C1  C2  O1  C3  C4  C5  C6  C7  H1  H2  H3  H4  H5  H6  H7  H8  
%FLAG TREE_CHAIN_CLASSIFICATION
%FORMAT(20a4)
BLA BLA BLA BLA BLA BLA BLA BLA BLA BLA BLA BLA BLA BLA BLA BLA 
%FLAG JOIN_ARRAY
%FORMAT(10I8)
       0       0       0       0       0       0       0       0       0       0
       0       0       0       0       0       0
%FLAG IROTAT
%FORMAT(10I8)
       0       0       0       0       0       0       0       0       0       0
       0       0       0       0       0       0
%FLAG SOLVENT_POINTERS
%FORMAT(3I8)
       1       1       2
%FLAG ATOMS_PER_MOLECULE
%FORMAT(10I8)
      16
%FLAG BOX_DIMENSIONS
%FORMAT(5E16.8)
  9.00000000E+01  3.00000000E+01  3.00000000E+01  3.00000000E+01
%FLAG RADIUS_SET
%FORMAT(1a80)
0
%FLAG RADII
%FORMAT(5E16.8)
  0.00000000E+00  0.00000000E+00  0.00000000E+00  0.00000000E+00  0.00000000E+00
  0.00000000E+00  0.00000000E+00  0.00000000E+00  0.00000000E+00  0.00000000E+00
  0.00000000E+00  0.00000000E+00  0.00000000E+00  0.00000000E+00  0.00000000E+00
  0.00000000E+00
%FLAG SCREEN
%FORMAT(5E16.8)
  0.00000000E+00  0.00000000E+00  0.00000000E+00  0.00000000E+00  0.00000000E+00
  0.00000000E+00  0.00000000E+00  0.00000000E+00  0.00000000E+00  0.00000000E+00
  0.00000000E+00  0.00000000E+00  0.00000000E+00  0.00000000E+00  0.00000000E+00
  0.00000000E+00
%FLAG IPOL
%FORMAT(1I8)
       0
