%VERSION  VERSION_STAMP = V0001.000  DATE = 04/16/24  23:59:01
%FLAG TITLE
%FORMAT(20a4)

%FLAG POINTERS
%FORMAT(10I8)
      44      10      21      27      48      45      94     112       0       0
     283       1      27      45     112      12       7      26       1       0
       0       0       0       0       0       0       0       1      44       0
       0       0
%FLAG ATOM_NAME
%FORMAT(20a4)
   C   N   C   C   C   C   C   O   C   C   C   C   C   C   C   C   C   C   C   O
   C   O   O   H   H   H   H   H   H   H   H   H   H   H   H   H   H   H   H   H
   H   H   H   H
%FLAG CHARGE
%FORMAT(5E16.8)
  2.95300696E+00 -1.34051518E+01  3.33020857E+00 -1.15612169E+00 -7.42475482E-01
  7.66330958E-01  1.00050371E+01 -9.11380010E+00 -3.30635309E+00 -1.79390219E+00
  2.83820647E+00  3.79852168E+00 -4.21763002E-01 -8.26298062E-01 -2.33874896E+00
  1.54988986E+00  2.02366966E+00 -3.08039657E+00 -2.26039307E+00 -5.55680714E+00
  2.03460304E+00 -5.01013814E+00 -1.07665627E+01  6.13263638E-01  6.13263638E-01
  6.13263638E-01  7.04375138E-01  7.04375138E-01  1.03237654E+00  1.03237654E+00
  1.85238004E+00  1.42415599E+00  1.42415599E+00  1.22371069E+00  1.22371069E+00
  9.95931938E-01  1.09615459E+00  1.09615459E+00  2.55029413E+00  2.49562723E+00
  8.19776964E-01  8.19776964E-01  8.19776964E-01  7.32453673E+00
%FLAG ATOMIC_NUMBER
%FORMAT(10I8)
       6       7       6       6       6       6       6       8       6       6
       6       6       6       6       6       6       6       6       6       8
       6       8       8       1       1       1       1       1       1       1
       1       1       1       1       1       1       1       1       1       1
       1       1       1       1
%FLAG MASS
%FORMAT(5E16.8)
  1.20107800E+01  1.40067200E+01  1.20107800E+01  1.20107800E+01  1.20107800E+01
  1.20107800E+01  1.20107800E+01  1.59994300E+01  1.20107800E+01  1.20107800E+01
  1.20107800E+01  1.20107800E+01  1.20107800E+01  1.20107800E+01  1.20107800E+01
  1.20107800E+01  1.20107800E+01  1.20107800E+01  1.20107800E+01  1.59994300E+01
  1.20107800E+01  1.59994300E+01  1.59994300E+01  1.00794700E+00  1.00794700E+00
  1.00794700E+00  1.00794700E+00  1.00794700E+00  1.00794700E+00  1.00794700E+00
  1.00794700E+00  1.00794700E+00  1.00794700E+00  1.00794700E+00  1.00794700E+00
  1.00794700E+00  1.00794700E+00  1.00794700E+00  1.00794700E+00  1.00794700E+00
  1.00794700E+00  1.00794700E+00  1.00794700E+00  1.00794700E+00
%FLAG ATOM_TYPE_INDEX
%FORMAT(10I8)
       1       2       1       1       1       1       3       4       1       1
       1       1       1       3       3       3       3       3       3       5
       1       5       6       7       7       7       7       7       8       8
       7       8       8       8       8       7       8       8       9       9
       7       7       7      10
%FLAG NUMBER_EXCLUDED_ATOMS
%FORMAT(10I8)
      12      19      15      16      24      17      12       6      10      11
      18      16      10      11      13       8      10       6       5       6
       3       1       4       2       1       1       3       2       1       1
       1       3       2       1       1       2       1       1       1       1
       2       1       1       1
%FLAG NONBONDED_PARM_INDEX
%FORMAT(10I8)
       1       2       4       7      11      16      22      29      37      46
       2       3       5       8      12      17      23      30      38      47
       4       5       6       9      13      18      24      31      39      48
       7       8       9      10      14      19      25      32      40      49
      11      12      13      14      15      20      26      33      41      50
      16      17      18      19      20      21      27      34      42      51
      22      23      24      25      26      27      28      35      43      52
      29      30      31      32      33      34      35      36      44      53
      37      38      39      40      41      42      43      44      45      54
      46      47      48      49      50      51      52      53      54      55
%FLAG RESIDUE_LABEL
%FORMAT(20a4)
RES 
%FLAG RESIDUE_POINTER
%FORMAT(10I8)
       1
%FLAG BOND_FORCE_CONSTANT
%FORMAT(5E16.8)
  2.28551472E+02  3.59821246E+02  2.09993463E+02  2.42097961E+02  2.09316568E+02
  2.17156968E+02  7.63509872E+02  2.72639139E+02  3.82573284E+02  3.25291005E+02
  3.87692669E+02  5.34904605E+02
%FLAG BOND_EQUIL_VALUE
%FORMAT(5E16.8)
  1.46420198E+00  1.09013951E+00  1.52794022E+00  1.50343427E+00  1.52947830E+00
  1.42183232E+00  1.22166864E+00  1.42382241E+00  1.39444570E+00  1.37566633E+00
  1.08182367E+00  9.81124525E-01
%FLAG ANGLE_FORCE_CONSTANT
%FORMAT(5E16.8)
  1.14868328E+02  6.05941635E+01  7.35207207E+01  1.18925609E+02  4.73186227E+01
  3.08813851E+01  3.75412722E+01
%FLAG ANGLE_EQUIL_VALUE
%FORMAT(5E16.8)
  1.97315675E+00  1.92096522E+00  2.09145248E+00  1.95454975E+00  2.15353358E+00
  2.08856596E+00  1.89514702E+00
%FLAG DIHEDRAL_FORCE_CONSTANT
%FORMAT(5E16.8)
  4.86472724E-02  2.15791151E-01  3.05938049E-01  1.52695928E-01 -3.52560505E+00
  4.29489372E-01  2.54391956E-01  8.73616024E-01  8.58688006E-02  1.81260253E-01
 -4.27959868E-01  1.33582679E-01  4.55808891E-01  4.47576434E-01  1.22281248E-01
  3.26266035E+00  1.72830369E+00  2.47339273E-01  9.16296951E-01  2.08078890E-01
 -1.73779601E-01  1.59049627E+00  1.00646483E-01  4.82791306E-01  2.51607308E-01
  1.74359686E+00
%FLAG DIHEDRAL_PERIODICITY
%FORMAT(5E16.8)
  3.00000000E+00  2.00000000E+00  3.00000000E+00  3.00000000E+00  1.00000000E+00
  3.00000000E+00  2.00000000E+00  1.00000000E+00  3.00000000E+00  3.00000000E+00
  2.00000000E+00  3.00000000E+00  1.00000000E+00  3.00000000E+00  1.00000000E+00
  2.00000000E+00  2.00000000E+00  3.00000000E+00  1.00000000E+00  2.00000000E+00
  3.00000000E+00  2.00000000E+00  3.00000000E+00  1.00000000E+00  3.00000000E+00
  2.00000000E+00
%FLAG DIHEDRAL_PHASE
%FORMAT(5E16.8)
  0.00000000E+00  3.14159265E+00  0.00000000E+00  0.00000000E+00  0.00000000E+00
  0.00000000E+00  3.14159265E+00  3.14159265E+00  0.00000000E+00  0.00000000E+00
  0.00000000E+00  0.00000000E+00  3.14159265E+00  0.00000000E+00  0.00000000E+00
  3.14159265E+00  3.14159265E+00  0.00000000E+00  0.00000000E+00  0.00000000E+00
  3.14159265E+00  3.14159265E+00  0.00000000E+00  0.00000000E+00  0.00000000E+00
  3.14159265E+00
%FLAG SCEE_SCALE_FACTOR
%FORMAT(5E16.8)
  1.20000000E+00  1.20000000E+00  1.20000000E+00  1.20000000E+00  1.20000000E+00
  1.20000000E+00  1.20000000E+00  1.20000000E+00  1.20000000E+00  1.20000000E+00
  1.20000000E+00  1.20000000E+00  1.20000000E+00  1.20000000E+00  1.20000000E+00
  1.20000000E+00  1.20000000E+00  1.20000000E+00  1.20000000E+00  1.20000000E+00
  1.20000000E+00  1.20000000E+00  1.20000000E+00  1.20000000E+00  1.20000000E+00
  1.20000000E+00
%FLAG SCNB_SCALE_FACTOR
%FORMAT(5E16.8)
  2.00000000E+00  2.00000000E+00  2.00000000E+00  2.00000000E+00  2.00000000E+00
  2.00000000E+00  2.00000000E+00  2.00000000E+00  2.00000000E+00  2.00000000E+00
  2.00000000E+00  2.00000000E+00  2.00000000E+00  2.00000000E+00  2.00000000E+00
  2.00000000E+00  2.00000000E+00  2.00000000E+00  2.00000000E+00  2.00000000E+00
  2.00000000E+00  2.00000000E+00  2.00000000E+00  2.00000000E+00  2.00000000E+00
  2.00000000E+00
%FLAG SOLTY
%FORMAT(5E16.8)
  0.00000000E+00
%FLAG LENNARD_JONES_ACOEF
%FORMAT(5E16.8)
  9.66338652E+05  8.79294713E+05  7.93518630E+05  1.03176034E+06  9.43185634E+05
  1.09874263E+06  7.23279159E+05  6.47256196E+05  7.79505155E+05  5.23439341E+05
  6.29920600E+05  5.63281289E+05  6.79179256E+05  4.55174081E+05  3.95783831E+05
  6.66507729E+05  5.95130058E+05  7.19215054E+05  4.80194724E+05  4.17483455E+05
  4.40259018E+05  8.33691908E+04  7.27334579E+04  9.11388134E+04  5.73085154E+04
  4.97169121E+04  5.22131072E+04  5.79557957E+03  9.24328843E+04  8.09350668E+04
  1.00841583E+05  6.40094305E+04  5.55490145E+04  5.83759564E+04  6.54768129E+03
  7.38518138E+03  7.95920949E+04  6.93937999E+04  8.70408503E+04  5.46412236E+04
  4.74001251E+04  4.97743103E+04  5.51473392E+03  6.23220052E+03  5.24722927E+03
  1.46234885E+01  1.05632514E+01  1.77434263E+01  6.83598005E+00  5.82434993E+00
  5.90854038E+00  3.70489465E-01  4.58964736E-01  3.46839744E-01  2.68310183E-08
%FLAG LENNARD_JONES_BCOEF
%FORMAT(5E16.8)
  6.48619732E+02  6.89322956E+02  7.29565189E+02  6.33499463E+02  6.74816129E+02
  6.17925587E+02  6.61518575E+02  6.97199722E+02  6.49127365E+02  6.63415836E+02
  5.84114727E+02  6.15386468E+02  5.73295868E+02  5.85339185E+02  5.16433069E+02
  6.34472236E+02  6.67953146E+02  6.22975213E+02  6.34866346E+02  5.60092079E+02
  6.07363521E+02  1.18714205E+02  1.23536998E+02  1.17322939E+02  1.16030740E+02
  1.02254337E+02  1.10655807E+02  1.95039576E+01  1.23783906E+02  1.29047419E+02
  1.22208696E+02  1.21432937E+02  1.07033291E+02  1.15865057E+02  2.05290621E+01
  2.15902147E+01  1.14557301E+02  1.19173082E+02  1.13235010E+02  1.11895237E+02
  9.86069031E+01  1.06702594E+02  1.87899014E+01  1.97803496E+01  1.81015245E+01
  2.60290771E-01  2.46468892E-01  2.71008789E-01  2.09796025E-01  1.83225863E-01
  1.94875807E-01  2.58163965E-02  2.84543313E-02  2.46694820E-02  1.15016368E-06
%FLAG BONDS_INC_HYDROGEN
%FORMAT(10I8)
       0      69       2       0      72       2       0      75       2       6
      78       2       6      81       2       9      84       2       9      87
       2      15      90       2      24      93       2      24      96       2
      27      99       2      27     102       2      33     105       2      36
     108       2      36     111       2      51     114      11      54     117
      11      60     120       2      60     123       2      60     126       2
      66     129      12
%FLAG BONDS_WITHOUT_HYDROGEN
%FORMAT(10I8)
       0       3       1       3       6       1       3      33       1       6
       9       3       9      12       3      12      15       3      12      30
       3      12      42       4      15      18       5      15      63       6
      18      21       7      18      24       5      24      27       3      27
      30       3      30      33       3      30      66       8      33      36
       3      36      39       4      39      42       9      39      54       9
      42      45       9      45      48       9      45      63      10      48
      51       9      48      57      10      51      54       9      57      60
       6
%FLAG ANGLES_INC_HYDROGEN
%FORMAT(10I8)
       3       0      69       2       3       0      72       2       3       0
      75       2       3       6      78       2       3       6      81       2
       3      33     105       2       6       9      84       2       6       9
      87       2       9       6      78       2       9       6      81       2
      12       9      84       2      12       9      87       2      12      15
      90       2      18      15      90       2      18      24      93       2
      18      24      96       2      24      27      99       2      24      27
     102       2      27      24      93       2      27      24      96       2
      30      27      99       2      30      27     102       2      30      33
     105       2      30      66     129       4      33      36     108       2
      33      36     111       2      36      33     105       2      39      36
     108       2      39      36     111       2      39      54     117       6
      48      51     114       6      51      54     117       6      54      51
     114       6      57      60     120       2      57      60     123       2
      57      60     126       2      63      15      90       2      69       0
      72       7      69       0      75       7      72       0      75       7
      78       6      81       7      84       9      87       7      93      24
      96       7      99      27     102       7     108      36     111       7
     120      60     123       7     120      60     126       7     123      60
     126       7
%FLAG ANGLES_WITHOUT_HYDROGEN
%FORMAT(10I8)
       0       3       6       1       0       3      33       1       3       6
       9       2       3      33      30       2       3      33      36       2
       6       3      33       1       6       9      12       2       9      12
      15       2       9      12      30       2       9      12      42       2
      12      15      18       2      12      15      63       2      12      30
      27       2      12      30      33       2      12      30      66       2
      12      42      39       3      12      42      45       3      15      12
      30       2      15      12      42       2      15      18      21       3
      15      18      24       3      15      63      45       4      18      15
      63       5      18      24      27       2      21      18      24       3
      24      27      30       2      27      30      33       2      27      30
      66       2      30      12      42       2      30      33      36       2
      33      30      66       2      33      36      39       2      36      39
      42       3      36      39      54       3      39      42      45       3
      39      54      51       3      42      39      54       3      42      45
      48       3      42      45      63       3      45      48      51       3
      45      48      57       3      48      45      63       5      48      51
      54       3      48      57      60       4      51      48      57       3
%FLAG DIHEDRALS_INC_HYDROGEN
%FORMAT(10I8)
       0       3       6      78       3       0       3       6      81       3
       0       3      33     105       3       3       6       9      84       4
       3       6       9      87       4       3      33      36     108       4
       3      33      36     111       4      69       0       3       6       3
      72       0       3       6       3      75       0       3       6       3
       6       3      33     105       3       9      12      15      90       9
      12       9       6      78       9      12       9       6      81       9
      12      30      27      99       9      12      30      27     102       9
      12      30      33     105       5      12      30      66     129      14
      12      30     -66     129      15      15      12       9      84       9
      15      12       9      87       9      15      18      24      93      10
      15      18      24      96      10      18      24      27      99       4
      18      24      27     102       4      21      18      15      90      19
      21      18     -15      90      20      21      18     -15      90      21
      21      18      24      93      19      21      18     -24      93      20
      21      18     -24      93      21      21      18      24      96      19
      21      18     -24      96      20      21      18     -24      96      21
      24      18      15      90      10      27      30      33     105       5
      27      30      66     129      14      27      30     -66     129      15
      30      12       9      84       9      30      12       9      87       9
      30      12      15      90       9      30      27      24      93       9
      30      27      24      96       9      30      33      36     108       9
      30      33      36     111       9      69       0       3      33       3
      72       0       3      33       3      75       0       3      33       3
      33       3       6      78       3      33       3       6      81       3
      33      30      27      99       9      33      30      27     102       9
      33      30      66     129      14      33      30     -66     129      15
      36      39      54     117      16      39      36      33     105       4
      39      54      51     114      16      42      12       9      84       4
      42      12       9      87       4      42      12      15      90       4
      42      39      36     108      10      42      39      36     111      10
      42      39      54     117      16      45      48      51     114      16
      45      63      15      90      18      48      51      54     117      16
      48      57      60     120      18      48      57      60     123      18
      48      57      60     126      18      54      39      36     108      10
      54      39      36     111      10      57      48      51     114      16
      66      30      27      99      23      66      30     -27      99      24
      66      30      27     102      23      66      30     -27     102      24
      66      30      33     105       5      78       6       9      84      25
      78       6       9      87      25      81       6       9      84      25
      81       6       9      87      25      93      24      27      99      25
      93      24      27     102      25      96      24      27      99      25
      96      24      27     102      25     105      33      36     108      25
     105      33      36     111      25     114      51      54     117      16
      54      39     -51    -117      26      54      51    -117     -39      26
      54     117     -39     -51      26      51      48     -54    -114      26
      51      54    -114     -48      26      51     114     -48     -54      26
%FLAG DIHEDRALS_WITHOUT_HYDROGEN
%FORMAT(10I8)
       0       3       6       9       1       0       3      -6       9       2
       0       3      33      30       1       0       3     -33      30       2
       0       3      33      36       1       0       3     -33      36       2
       3       6       9      12       4       3      33     -30      12       5
       3      33      30      27       5       3      33      30      66       4
       3      33      36      39       4       6       3      33      30       1
       6       3     -33      30       2       6       3      33      36       1
       6       3     -33      36       2       6       9      12      15       6
       6       9     -12      15       7       6       9     -12      15       8
       6       9     -12      30       6       6       9     -12      30       7
       6       9     -12      30       8       6       9      12      42       4
       9       6       3      33       1       9       6      -3      33       2
       9      12      15      18       4       9      12      15      63       4
       9      12      30      27       6       9      12     -30      27       7
       9      12     -30      27       8       9      12     -30      33       6
       9      12     -30      33       7       9      12     -30      33       8
       9      12      30      66       4       9      12      42      39      10
       9      12      42      45      10      12      15      18      21      11
      12      15      18      24      10      12      15     -63      45      12
      12      15     -63      45      13      12      30     -27      24       6
      12      30     -27      24       7      12      30     -27      24       8
      12      30      33      36       5      12      42     -39      36      16
      12      42      39      54      16      12      42      45      48      16
      12      42     -45      63      16      15      12      30      27       6
      15      12     -30      27       7      15      12     -30      27       8
      15      12      30      33       6      15      12     -30      33       7
      15      12     -30      33       8      15      12      30      66       4
      15      12      42      39      10      15      12     -42      45      10
      15      18     -24      27      10      15      63     -45      42      17
      15      63      45      48      17      18      15      12      30       4
      18      15      12      42       4      18      15      63      45      18
      18      24     -27      30       4      21      18      15      63      11
      21      18      24      27      11      24      18      15      63      10
      24      27      30      33       6      24      27     -30      33       7
      24      27     -30      33       8      24      27      30      66       4
      27      30      12      42       4      27      30      33      36       5
      30      12      15      63       4      30      12      42      39      10
      30      12      42      45      10      30      33     -36      39       4
      33      30      12      42       4      33      36     -39      42      10
      33      36      39      54      10      36      33      30      66       5
      36      39      42      45      16      36      39      54      51      16
      39      42      45      48      16      39      42      45      63      16
      39      54     -51      48      16      42      12     -15      63       4
      42      12      30      66       4      42      39      54      51      16
      42      45     -48      51      16      42      45      48      57      16
      45      42      39      54      16      45      48     -51      54      16
      45      48      57      60      22      51      48      45      63      16
      51      48      57      60      22      54      51      48      57      16
      57      48      45      63      16      42      12     -39     -45      26
      42      39     -45     -12      26      42      45     -12     -39      26
      18      15     -21     -24      26      18      21     -24     -15      26
      18      24     -15     -21      26      39      36     -42     -54      26
      39      42     -54     -36      26      39      54     -36     -42      26
      45      42     -48     -63      26      45      48     -63     -42      26
      45      63     -42     -48      26      48      45     -51     -57      26
      48      51     -57     -45      26      48      57     -45     -51      26
%FLAG EXCLUDED_ATOMS_LIST
%FORMAT(10I8)
       2       3       4      11      12      13      24      25      26      27
      28      36       3       4       5      10      11      12      13      14
      23      24      25      26      27      28      29      30      36      37
      38       4       5       6      11      12      13      15      24      25
      26      27      28      29      30      36       5       6       7      10
      11      12      14      15      16      22      23      27      28      29
      30      31       6       7       8       9      10      11      12      13
      14      15      16      17      19      22      23      27      28      29
      30      31      34      35      36      44       7       8       9      10
      11      12      14      15      16      17      22      23      29      30
      31      32      33       8       9      10      11      15      16      22
      31      32      33      34      35       9      10      22      31      32
      33      10      11      12      22      23      31      32      33      34
      35      11      12      13      15      23      32      33      34      35
      36      44      12      13      14      15      16      22      23      29
      30      31      32      33      34      35      36      37      38      44
      13      14      15      19      23      24      25      26      27      28
      34      35      36      37      38      44      14      15      16      18
      19      23      36      37      38      40      15      16      17      18
      19      22      36      37      38      39      40      16      17      18
      19      20      22      23      29      30      31      37      38      40
      17      18      19      20      21      22      31      39      18      19
      20      21      22      39      40      41      42      43      19      20
      21      22      39      40      20      37      38      39      40      21
      22      39      41      42      43      41      42      43      31      34
      35      36      44      25      26      26       0      28      29      30
      29      30      30       0       0      33      34      35      34      35
      35       0      37      38      38       0      40       0      42      43
      43       0       0
%FLAG HBOND_ACOEF
%FORMAT(5E16.8)

%FLAG HBOND_BCOEF
%FORMAT(5E16.8)

%FLAG HBCUT
%FORMAT(5E16.8)

%FLAG AMBER_ATOM_TYPE
%FORMAT(20a4)
C1  N1  C2  C3  C4  C5  C6  O1  C7  C8  C9  C10 C11 C12 C13 C14 C15 C16 C17 O2  
C18 O3  O4  H1  H2  H3  H4  H5  H6  H7  H8  H9  H10 H11 H12 H13 H14 H15 H16 H17 
H18 H19 H20 H21 
%FLAG TREE_CHAIN_CLASSIFICATION
%FORMAT(20a4)
BLA BLA BLA BLA BLA BLA BLA BLA BLA BLA BLA BLA BLA BLA BLA BLA BLA BLA BLA BLA 
BLA BLA BLA BLA BLA BLA BLA BLA BLA BLA BLA BLA BLA BLA BLA BLA BLA BLA BLA BLA 
BLA BLA BLA BLA 
%FLAG JOIN_ARRAY
%FORMAT(10I8)
       0       0       0       0       0       0       0       0       0       0
       0       0       0       0       0       0       0       0       0       0
       0       0       0       0       0       0       0       0       0       0
       0       0       0       0       0       0       0       0       0       0
       0       0       0       0
%FLAG IROTAT
%FORMAT(10I8)
       0       0       0       0       0       0       0       0       0       0
       0       0       0       0       0       0       0       0       0       0
       0       0       0       0       0       0       0       0       0       0
       0       0       0       0       0       0       0       0       0       0
       0       0       0       0
%FLAG SOLVENT_POINTERS
%FORMAT(3I8)
       1       1       2
%FLAG ATOMS_PER_MOLECULE
%FORMAT(10I8)
      44
%FLAG BOX_DIMENSIONS
%FORMAT(5E16.8)
  9.00000000E+01  3.00000000E+01  3.00000000E+01  3.00000000E+01
%FLAG RADIUS_SET
%FORMAT(1a80)
0
%FLAG RADII
%FORMAT(5E16.8)
  0.00000000E+00  0.00000000E+00  0.00000000E+00  0.00000000E+00  0.00000000E+00
  0.00000000E+00  0.00000000E+00  0.00000000E+00  0.00000000E+00  0.00000000E+00
  0.00000000E+00  0.00000000E+00  0.00000000E+00  0.00000000E+00  0.00000000E+00
  0.00000000E+00  0.00000000E+00  0.00000000E+00  0.00000000E+00  0.00000000E+00
  0.00000000E+00  0.00000000E+00  0.00000000E+00  0.00000000E+00  0.00000000E+00
  0.00000000E+00  0.00000000E+00  0.00000000E+00  0.00000000E+00  0.00000000E+00
  0.00000000E+00  0.00000000E+00  0.00000000E+00  0.00000000E+00  0.00000000E+00
  0.00000000E+00  0.00000000E+00  0.00000000E+00  0.00000000E+00  0.00000000E+00
  0.00000000E+00  0.00000000E+00  0.00000000E+00  0.00000000E+00
%FLAG SCREEN
%FORMAT(5E16.8)
  0.00000000E+00  0.00000000E+00  0.00000000E+00  0.00000000E+00  0.00000000E+00
  0.00000000E+00  0.00000000E+00  0.00000000E+00  0.00000000E+00  0.00000000E+00
  0.00000000E+00  0.00000000E+00  0.00000000E+00  0.00000000E+00  0.00000000E+00
  0.00000000E+00  0.00000000E+00  0.00000000E+00  0.00000000E+00  0.00000000E+00
  0.00000000E+00  0.00000000E+00  0.00000000E+00  0.00000000E+00  0.00000000E+00
  0.00000000E+00  0.00000000E+00  0.00000000E+00  0.00000000E+00  0.00000000E+00
  0.00000000E+00  0.00000000E+00  0.00000000E+00  0.00000000E+00  0.00000000E+00
  0.00000000E+00  0.00000000E+00  0.00000000E+00  0.00000000E+00  0.00000000E+00
  0.00000000E+00  0.00000000E+00  0.00000000E+00  0.00000000E+00
%FLAG IPOL
%FORMAT(1I8)
       0
